18
# CELL(abcABC):   25.29166    25.29166    25.29166    90.00000    90.00000    90.00000  Step:           0  Bead:       0 x_centroid{angstrom}  cell{atomic_unit}
       H -2.00700e+00 -4.22000e-01  2.22000e+00
       H -6.01000e-01 -5.97000e-01  1.55400e+00
       H -2.51700e+00 -7.67000e-01 -1.73400e+00
       H -1.88900e+00 -4.80000e-01 -3.48000e-01
       H -9.90000e-01  1.59300e+00 -8.77000e-01
       H -9.48000e-01  1.53400e+00  6.25000e-01
       H  1.54200e+00 -3.94000e-01  1.34400e+00
       H  9.80000e-01 -1.52200e+00  5.28000e-01
       H  1.47100e+00 -5.71000e-01 -1.27800e+00
       H  6.50000e-02 -1.11900e+00 -1.52300e+00
       H  2.67500e+00  1.73500e+00 -2.38000e-01
       H  1.14200e+00  1.53200e+00 -1.40000e-01
       O -1.50200e+00 -1.91000e-01  1.43500e+00
       O -1.74500e+00 -3.82000e-01 -1.30900e+00
       O -5.60000e-01  2.01800e+00 -1.22000e-01
       O  9.65000e-01 -1.16600e+00  1.44000e+00
       O  9.75000e-01 -1.40200e+00 -1.33600e+00
       O  2.00200e+00  1.05800e+00 -1.25000e-01
18
# CELL(abcABC):   25.29166    25.29166    25.29166    90.00000    90.00000    90.00000  Step:          40  Bead:       0 x_centroid{angstrom}  cell{atomic_unit}
       H -2.02221e+00 -3.97389e-01  2.21237e+00
       H -6.02365e-01 -5.86682e-01  1.55653e+00
       H -2.52342e+00 -7.39556e-01 -1.74912e+00
       H -1.88015e+00 -5.14909e-01 -3.51308e-01
       H -9.89339e-01  1.62018e+00 -9.04487e-01
       H -9.43838e-01  1.51505e+00  6.18698e-01
       H  1.54199e+00 -3.98036e-01  1.36568e+00
       H  9.55791e-01 -1.53336e+00  5.28614e-01
       H  1.47199e+00 -5.74487e-01 -1.26326e+00
       H  6.75169e-02 -1.12444e+00 -1.53778e+00
       H  2.67749e+00  1.73048e+00 -2.46643e-01
       H  1.14478e+00  1.56680e+00 -1.27431e-01
       O -1.50344e+00 -1.85855e-01  1.43618e+00
       O -1.74049e+00 -3.88380e-01 -1.30795e+00
       O -5.64672e-01  2.01418e+00 -1.29243e-01
       O  9.76204e-01 -1.17739e+00  1.44016e+00
       O  9.74849e-01 -1.39969e+00 -1.33365e+00
       O  1.99411e+00  1.06951e+00 -1.20526e-01
18
# CELL(abcABC):   25.29166    25.29166    25.29166    90.00000    90.00000    90.00000  Step:          80  Bead:       0 x_centroid{angstrom}  cell{atomic_unit}
       H -1.99319e+00 -3.51930e-01  2.23882e+00
       H -6.09757e-01 -5.84531e-01  1.58263e+00
       H -2.49827e+00 -7.16431e-01 -1.78493e+00
       H -1.90706e+00 -5.64479e-01 -3.68693e-01
       H -1.00155e+00  1.65332e+00 -9.27294e-01
       H -9.53867e-01  1.45590e+00  5.56930e-01
       H  1.55844e+00 -4.14150e-01  1.36830e+00
       H  1.01688e+00 -1.52937e+00  5.25529e-01
       H  1.47695e+00 -5.74581e-01 -1.26876e+00
       H  7.88907e-02 -1.12151e+00 -1.56575e+00
       H  2.67208e+00  1.71349e+00 -2.07971e-01
       H  1.11299e+00  1.55801e+00 -1.53239e-01
       O -1.50845e+00 -1.84255e-01  1.43267e+00
       O -1.73042e+00 -3.94033e-01 -1.30200e+00
       O -5.72824e-01  2.02080e+00 -1.46147e-01
       O  9.90811e-01 -1.19495e+00  1.44999e+00
       O  9.76147e-01 -1.39901e+00 -1.33377e+00
       O  1.97788e+00  1.08634e+00 -1.09084e-01
18
# CELL(abcABC):   25.29166    25.29166    25.29166    90.00000    90.00000    90.00000  Step:         120  Bead:       0 x_centroid{angstrom}  cell{atomic_unit}
       H -1.99840e+00 -2.89325e-01  2.25311e+00
       H -6.31046e-01 -6.33546e-01  1.53480e+00
       H -2.48583e+00 -6.94420e-01 -1.81981e+00
       H -1.92272e+00 -5.76628e-01 -3.80058e-01
       H -9.79208e-01  1.68774e+00 -9.71683e-01
       H -9.54936e-01  1.44010e+00  5.19706e-01
       H  1.56476e+00 -4.20291e-01  1.39126e+00
       H  1.02145e+00 -1.57744e+00  5.55439e-01
       H  1.47518e+00 -5.60128e-01 -1.28424e+00
       H  8.77246e-02 -1.12108e+00 -1.56234e+00
       H  2.62798e+00  1.76568e+00 -1.43100e-01
       H  1.12322e+00  1.61969e+00 -1.20798e-01
       O -1.51671e+00 -1.87038e-01  1.43620e+00
       O -1.73009e+00 -3.96285e-01 -1.31096e+00
       O -5.80800e-01  2.01331e+00 -1.65411e-01
       O  1.01073e+00 -1.20329e+00  1.46758e+00
       O  9.87495e-01 -1.39499e+00 -1.33531e+00
       O  1.96404e+00  1.09583e+00 -9.89746e-02
18
# CELL(abcABC):   25.29166    25.29166    25.29166    90.00000    90.00000    90.00000  Step:         160  Bead:       0 x_centroid{angstrom}  cell{atomic_unit}
       H -1.94697e+00 -3.29273e-01  2.29048e+00
       H -6.14524e-01 -6.03252e-01  1.53122e+00
       H -2.47743e+00 -7.26432e-01 -1.83561e+00
       H -1.94982e+00 -5.22556e-01 -4.02719e-01
       H -9.97476e-01  1.68952e+00 -9.99465e-01
       H -9.85315e-01  1.40617e+00  4.73720e-01
       H  1.55438e+00 -4.10224e-01  1.36607e+00
       H  1.04373e+00 -1.56760e+00  5.60904e-01
       H  1.49128e+00 -5.46797e-01 -1.25440e+00
       H  8.29108e-02 -1.14016e+00 -1.47656e+00
       H  2.65581e+00  1.76820e+00 -9.29563e-02
       H  1.07970e+00  1.57929e+00 -1.29013e-01
       O -1.52244e+00 -1.95003e-01  1.43915e+00
       O -1.74019e+00 -3.89466e-01 -1.33847e+00
       O -5.88210e-01  2.00080e+00 -1.80464e-01
       O  1.01926e+00 -1.20732e+00  1.48713e+00
       O  1.00702e+00 -1.39560e+00 -1.33478e+00
       O  1.95873e+00  1.11686e+00 -8.31696e-02
18
# CELL(abcABC):   25.29166    25.29166    25.29166    90.00000    90.00000    90.00000  Step:         200  Bead:       0 x_centroid{angstrom}  cell{atomic_unit}
       H -1.96995e+00 -3.72128e-01  2.28833e+00
       H -5.86423e-01 -5.36152e-01  1.54114e+00
       H -2.44278e+00 -8.39967e-01 -1.84524e+00
       H -1.99331e+00 -4.53012e-01 -4.24388e-01
       H -9.94279e-01  1.66378e+00 -1.03359e+00
       H -1.00921e+00  1.44459e+00  4.82377e-01
       H  1.52286e+00 -3.73420e-01  1.43575e+00
       H  1.06119e+00 -1.57377e+00  5.98644e-01
       H  1.48682e+00 -5.42065e-01 -1.23600e+00
       H  9.02303e-02 -1.12577e+00 -1.46328e+00
       H  2.61263e+00  1.82577e+00 -8.36317e-02
       H  1.09986e+00  1.58605e+00 -1.92207e-01
       O -1.52660e+00 -2.00599e-01  1.45049e+00
       O -1.75826e+00 -3.91013e-01 -1.36572e+00
       O -5.99038e-01  1.98584e+00 -2.02025e-01
       O  1.03780e+00 -1.20038e+00  1.50496e+00
       O  1.02007e+00 -1.38661e+00 -1.33058e+00
       O  1.96389e+00  1.11630e+00 -7.00132e-02
18
# CELL(abcABC):   25.29166    25.29166    25.29166    90.00000    90.00000    90.00000  Step:         240  Bead:       0 x_centroid{angstrom}  cell{atomic_unit}
       H -2.00341e+00 -3.85926e-01  2.26499e+00
       H -6.20958e-01 -6.25819e-01  1.58898e+00
       H -2.37825e+00 -9.64411e-01 -1.85363e+00
       H -1.99002e+00 -5.01412e-01 -4.43325e-01
       H -1.06901e+00  1.57523e+00 -9.88215e-01
       H -1.01567e+00  1.53394e+00  5.22378e-01
       H  1.55530e+00 -3.88738e-01  1.42433e+00
       H  1.11002e+00 -1.54774e+00  6.20251e-01
       H  1.52887e+00 -5.45270e-01 -1.26450e+00
       H  1.01851e-01 -1.11407e+00 -1.52645e+00
       H  2.64581e+00  1.79286e+00 -7.68729e-02
       H  1.08443e+00  1.55894e+00 -1.45396e-01
       O -1.52328e+00 -2.06387e-01  1.44924e+00
       O -1.77383e+00 -3.81721e-01 -1.38753e+00
       O -6.09603e-01  1.98509e+00 -2.26487e-01
       O  1.05188e+00 -1.19307e+00  1.53196e+00
       O  1.02219e+00 -1.37643e+00 -1.32528e+00
       O  1.96600e+00  1.11598e+00 -5.82498e-02
18
# CELL(abcABC):   25.29166    25.29166    25.29166    90.00000    90.00000    90.00000  Step:         280  Bead:       0 x_centroid{angstrom}  cell{atomic_unit}
       H -2.05092e+00 -3.58220e-01  2.22722e+00
       H -6.50068e-01 -6.76242e-01  1.57896e+00
       H -2.33397e+00 -1.02951e+00 -1.84951e+00
       H -1.87333e+00 -5.48474e-01 -4.38141e-01
       H -1.08286e+00  1.46529e+00 -9.11152e-01
       H -9.68571e-01  1.63288e+00  5.89302e-01
       H  1.58103e+00 -3.84123e-01  1.41137e+00
       H  1.07448e+00 -1.58034e+00  6.62315e-01
       H  1.54206e+00 -5.48843e-01 -1.31400e+00
       H  1.34428e-01 -1.05893e+00 -1.56576e+00
       H  2.62293e+00  1.81511e+00 -8.01884e-02
       H  1.10793e+00  1.59002e+00 -1.10915e-01
       O -1.52611e+00 -2.16491e-01  1.44694e+00
       O -1.78916e+00 -3.72144e-01 -1.40286e+00
       O -6.24988e-01  1.98573e+00 -2.38100e-01
       O  1.07154e+00 -1.18130e+00  1.54102e+00
       O  1.02383e+00 -1.37960e+00 -1.31734e+00
       O  1.96853e+00  1.11162e+00 -5.08521e-02
18
# CELL(abcABC):   25.29166    25.29166    25.29166    90.00000    90.00000    90.00000  Step:         320  Bead:       0 x_centroid{angstrom}  cell{atomic_unit}
       H -2.01841e+00 -3.18811e-01  2.24337e+00
       H -6.42680e-01 -6.45266e-01  1.65220e+00
       H -2.32128e+00 -1.04651e+00 -1.82823e+00
       H -1.81572e+00 -6.02568e-01 -4.44915e-01
       H -1.07676e+00  1.40435e+00 -8.50286e-01
       H -9.54392e-01  1.67375e+00  6.14637e-01
       H  1.59496e+00 -3.70165e-01  1.37184e+00
       H  1.06830e+00 -1.55176e+00  6.63006e-01
       H  1.60747e+00 -6.05231e-01 -1.32831e+00
       H  1.31503e-01 -1.06066e+00 -1.52418e+00
       H  2.61920e+00  1.79963e+00 -1.54093e-01
       H  1.08674e+00  1.52567e+00 -1.68146e-01
       O -1.52404e+00 -2.34061e-01  1.43549e+00
       O -1.78786e+00 -3.63736e-01 -1.40019e+00
       O -6.44642e-01  1.99091e+00 -2.44248e-01
       O  1.07818e+00 -1.17211e+00  1.54157e+00
       O  1.02063e+00 -1.37586e+00 -1.31730e+00
       O  1.97031e+00  1.10999e+00 -3.95018e-02
18
# CELL(abcABC):   25.29166    25.29166    25.29166    90.00000    90.00000    90.00000  Step:         360  Bead:       0 x_centroid{angstrom}  cell{atomic_unit}
       H -2.03835e+00 -2.60684e-01  2.22665e+00
       H -5.92660e-01 -5.60154e-01  1.63931e+00
       H -2.34076e+00 -9.67586e-01 -1.87243e+00
       H -1.88592e+00 -5.60040e-01 -4.28971e-01
       H -1.06679e+00  1.40649e+00 -8.90645e-01
       H -9.91095e-01  1.65842e+00  6.06227e-01
       H  1.59844e+00 -3.42899e-01  1.41566e+00
       H  1.08182e+00 -1.53843e+00  6.45463e-01
       H  1.57900e+00 -6.00052e-01 -1.26616e+00
       H  1.47734e-01 -9.91395e-01 -1.48834e+00
       H  2.57988e+00  1.80549e+00 -2.21235e-01
       H  1.09740e+00  1.51389e+00 -1.95264e-01
       O -1.50981e+00 -2.45458e-01  1.43393e+00
       O -1.78946e+00 -3.58566e-01 -1.38430e+00
       O -6.54807e-01  1.98059e+00 -2.51942e-01
       O  1.07968e+00 -1.16663e+00  1.52830e+00
       O  1.01910e+00 -1.38177e+00 -1.32249e+00
       O  1.97481e+00  1.10424e+00 -2.28508e-02
18
# CELL(abcABC):   25.29166    25.29166    25.29166    90.00000    90.00000    90.00000  Step:         400  Bead:       0 x_centroid{angstrom}  cell{atomic_unit}
       H -1.94590e+00 -3.19332e-01  2.27106e+00
       H -5.87261e-01 -5.58476e-01  1.59509e+00
       H -2.37045e+00 -8.91093e-01 -1.88540e+00
       H -2.01921e+00 -5.58362e-01 -4.31569e-01
       H -1.10444e+00  1.46035e+00 -9.54845e-01
       H -1.05593e+00  1.54905e+00  5.42309e-01
       H  1.61999e+00 -3.41587e-01  1.44423e+00
       H  1.12056e+00 -1.52198e+00  6.27048e-01
       H  1.56998e+00 -6.30231e-01 -1.14466e+00
       H  1.21219e-01 -1.02827e+00 -1.46463e+00
       H  2.61575e+00  1.77286e+00 -2.60328e-01
       H  1.10808e+00  1.53878e+00 -6.73584e-02
       O -1.50331e+00 -2.43106e-01  1.42833e+00
       O -1.78457e+00 -3.57795e-01 -1.36035e+00
       O -6.62807e-01  1.96160e+00 -2.62836e-01
       O  1.08479e+00 -1.15440e+00  1.52367e+00
       O  1.00333e+00 -1.37939e+00 -1.32911e+00
       O  1.98817e+00  1.11125e+00 -2.53941e-02
18
# CELL(abcABC):   25.29166    25.29166    25.29166    90.00000    90.00000    90.00000  Step:         440  Bead:       0 x_centroid{angstrom}  cell{atomic_unit}
       H -1.89553e+00 -3.94342e-01  2.29888e+00
       H -6.04405e-01 -6.08612e-01  1.45296e+00
       H -2.40825e+00 -8.13005e-01 -1.89427e+00
       H -2.02020e+00 -5.72444e-01 -4.20144e-01
       H -1.07253e+00  1.60436e+00 -1.06649e+00
       H -1.08594e+00  1.45301e+00  4.64260e-01
       H  1.68925e+00 -3.83658e-01  1.48164e+00
       H  1.11228e+00 -1.47968e+00  6.04709e-01
       H  1.48753e+00 -5.78413e-01 -1.16932e+00
       H  1.00661e-01 -1.01858e+00 -1.42468e+00
       H  2.62780e+00  1.77675e+00 -2.70705e-01
       H  1.12917e+00  1.56631e+00 -3.13612e-02
       O -1.51054e+00 -2.29052e-01  1.43807e+00
       O -1.78156e+00 -3.66746e-01 -1.33839e+00
       O -6.58287e-01  1.94418e+00 -2.58938e-01
       O  1.09477e+00 -1.14352e+00  1.51123e+00
       O  9.84708e-01 -1.37781e+00 -1.33179e+00
       O  1.99730e+00  1.10608e+00 -3.04087e-02
18
# CELL(abcABC):   25.29166    25.29166    25.29166    90.00000    90.00000    90.00000  Step:         480  Bead:       0 x_centroid{angstrom}  cell{atomic_unit}
       H -1.86410e+00 -5.17557e-01  2.28848e+00
       H -5.95774e-01 -5.89650e-01  1.47815e+00
       H -2.43730e+00 -8.20777e-01 -1.86276e+00
       H -2.00093e+00 -5.56185e-01 -4.00331e-01
       H -1.01689e+00  1.66694e+00 -1.10128e+00
       H -1.09156e+00  1.34131e+00  3.56266e-01
       H  1.71101e+00 -4.05997e-01  1.48911e+00
       H  1.18163e+00 -1.46046e+00  5.90817e-01
       H  1.44398e+00 -5.44378e-01 -1.31350e+00
       H  2.57728e-02 -1.12536e+00 -1.44042e+00
       H  2.66185e+00  1.77388e+00 -2.84066e-01
       H  1.13053e+00  1.54075e+00 -1.34080e-01
       O -1.50507e+00 -2.22878e-01  1.44638e+00
       O -1.78197e+00 -3.80398e-01 -1.31609e+00
       O -6.44249e-01  1.94081e+00 -2.49351e-01
       O  1.09985e+00 -1.14297e+00  1.50393e+00
       O  9.52039e-01 -1.35310e+00 -1.33668e+00
       O  2.00021e+00  1.10738e+00 -3.57950e-02
18
# CELL(abcABC):   25.29166    25.29166    25.29166    90.00000    90.00000    90.00000  Step:         520  Bead:       0 x_centroid{angstrom}  cell{atomic_unit}
       H -1.96355e+00 -5.24881e-01  2.23614e+00
       H -5.43919e-01 -4.72934e-01  1.53052e+00
       H -2.47865e+00 -8.71914e-01 -1.76891e+00
       H -1.93879e+00 -5.93069e-01 -3.53899e-01
       H -9.37282e-01  1.66536e+00 -1.11867e+00
       H -1.01582e+00  1.35036e+00  3.66383e-01
       H  1.67596e+00 -4.00445e-01  1.52180e+00
       H  1.16919e+00 -1.46495e+00  5.82062e-01
       H  1.32260e+00 -4.87505e-01 -1.45579e+00
       H -2.28647e-02 -1.15767e+00 -1.51213e+00
       H  2.65239e+00  1.79563e+00 -2.91406e-01
       H  1.15093e+00  1.51461e+00 -1.90965e-01
       O -1.49051e+00 -2.16052e-01  1.46014e+00
       O -1.77903e+00 -4.05007e-01 -1.28700e+00
       O -6.26123e-01  1.95475e+00 -2.51426e-01
       O  1.09696e+00 -1.14854e+00  1.49484e+00
       O  9.15033e-01 -1.33917e+00 -1.33669e+00
       O  2.00940e+00  1.09969e+00 -5.98309e-02
18
# CELL(abcABC):   25.29166    25.29166    25.29166    90.00000    90.00000    90.00000  Step:         560  Bead:       0 x_centroid{angstrom}  cell{atomic_unit}
       H -1.95452e+00 -4.02940e-01  2.25765e+00
       H -5.68258e-01 -5.81866e-01  1.63646e+00
       H -2.51941e+00 -9.40241e-01 -1.66386e+00
       H -1.83826e+00 -5.76961e-01 -3.01232e-01
       H -9.68001e-01  1.57696e+00 -1.04169e+00
       H -1.00961e+00  1.44724e+00  4.17188e-01
       H  1.66688e+00 -4.06788e-01  1.48600e+00
       H  1.05835e+00 -1.36220e+00  5.45748e-01
       H  1.33628e+00 -4.70845e-01 -1.39642e+00
       H -3.63078e-02 -1.18307e+00 -1.55668e+00
       H  2.66015e+00  1.78758e+00 -2.89184e-01
       H  1.16000e+00  1.51737e+00 -1.05609e-01
       O -1.47365e+00 -2.06691e-01  1.45731e+00
       O -1.79626e+00 -4.47816e-01 -1.26945e+00
       O -5.90722e-01  1.97786e+00 -2.55990e-01
       O  1.07874e+00 -1.15707e+00  1.49457e+00
       O  8.89778e-01 -1.31972e+00 -1.34516e+00
       O  2.02306e+00  1.09585e+00 -8.91704e-02
18
# CELL(abcABC):   25.29166    25.29166    25.29166    90.00000    90.00000    90.00000  Step:         600  Bead:       0 x_centroid{angstrom}  cell{atomic_unit}
       H -2.00657e+00 -2.06851e-01  2.23563e+00
       H -6.11582e-01 -6.59322e-01  1.62495e+00
       H -2.58015e+00 -9.67149e-01 -1.55036e+00
       H -1.83230e+00 -5.76867e-01 -2.73998e-01
       H -1.00916e+00  1.57768e+00 -9.71839e-01
       H -9.95218e-01  1.64730e+00  5.27928e-01
       H  1.60573e+00 -3.74778e-01  1.45802e+00
       H  9.36307e-01 -1.37194e+00  5.51009e-01
       H  1.34913e+00 -4.44916e-01 -1.28799e+00
       H -2.07713e-02 -1.04062e+00 -1.56083e+00
       H  2.67840e+00  1.77736e+00 -1.89198e-01
       H  1.19431e+00  1.53471e+00 -1.20617e-01
       O -1.46372e+00 -2.02311e-01  1.45802e+00
       O -1.80640e+00 -5.00143e-01 -1.25967e+00
       O -5.59286e-01  1.98901e+00 -2.49950e-01
       O  1.05625e+00 -1.15929e+00  1.48372e+00
       O  8.83948e-01 -1.30233e+00 -1.34539e+00
       O  2.03774e+00  1.08659e+00 -1.23248e-01
18
# CELL(abcABC):   25.29166    25.29166    25.29166    90.00000    90.00000    90.00000  Step:         640  Bead:       0 x_centroid{angstrom}  cell{atomic_unit}
       H -1.95201e+00 -1.06552e-01  2.24858e+00
       H -5.95823e-01 -5.69609e-01  1.72507e+00
       H -2.62654e+00 -1.00365e+00 -1.48221e+00
       H -1.78847e+00 -5.31358e-01 -2.61063e-01
       H -1.10119e+00  1.57575e+00 -8.78374e-01
       H -9.05852e-01  1.70271e+00  5.85968e-01
       H  1.53764e+00 -3.63644e-01  1.36490e+00
       H  1.00389e+00 -1.49607e+00  5.65533e-01
       H  1.46199e+00 -5.03759e-01 -1.19172e+00
       H -9.88589e-03 -9.76779e-01 -1.52937e+00
       H  2.71308e+00  1.73870e+00 -1.12854e-01
       H  1.20443e+00  1.52355e+00 -2.27994e-01
       O -1.45904e+00 -1.87202e-01  1.43502e+00
       O -1.82606e+00 -5.49241e-01 -1.24621e+00
       O -5.33587e-01  2.00981e+00 -2.46284e-01
       O  1.02056e+00 -1.16713e+00  1.47218e+00
       O  8.79257e-01 -1.27500e+00 -1.32265e+00
       O  2.05272e+00  1.07433e+00 -1.51480e-01
18
# CELL(abcABC):   25.29166    25.29166    25.29166    90.00000    90.00000    90.00000  Step:         680  Bead:       0 x_centroid{angstrom}  cell{atomic_unit}
       H -1.93677e+00 -5.87950e-02  2.23763e+00
       H -5.41184e-01 -4.93742e-01  1.56242e+00
       H -2.66852e+00 -1.04757e+00 -1.45272e+00
       H -1.82131e+00 -6.40135e-01 -2.62821e-01
       H -1.12166e+00  1.60851e+00 -8.60705e-01
       H -7.22051e-01  1.65023e+00  6.24022e-01
       H  1.51776e+00 -3.76556e-01  1.34697e+00
       H  9.79746e-01 -1.58744e+00  6.01141e-01
       H  1.47609e+00 -4.81887e-01 -1.26905e+00
       H  1.98181e-02 -9.09958e-01 -1.47256e+00
       H  2.71843e+00  1.74579e+00 -8.37578e-02
       H  1.23750e+00  1.52175e+00 -2.91619e-01
       O -1.45449e+00 -1.51425e-01  1.41486e+00
       O -1.85187e+00 -5.81495e-01 -1.23454e+00
       O -5.14833e-01  2.03471e+00 -2.47189e-01
       O  9.81536e-01 -1.17721e+00  1.48405e+00
       O  8.98133e-01 -1.27549e+00 -1.29330e+00
       O  2.06299e+00  1.06020e+00 -1.75290e-01
18
# CELL(abcABC):   25.29166    25.29166    25.29166    90.00000    90.00000    90.00000  Step:         720  Bead:       0 x_centroid{angstrom}  cell{atomic_unit}
       H -1.83277e+00 -1.25808e-01  2.29651e+00
       H -6.29691e-01 -6.06683e-01  1.55613e+00
       H -2.64841e+00 -1.07863e+00 -1.58691e+00
       H -1.93504e+00 -6.41754e-01 -2.50186e-01
       H -1.12082e+00  1.63333e+00 -8.60488e-01
       H -6.90761e-01  1.54797e+00  5.66010e-01
       H  1.57165e+00 -4.45090e-01  1.30265e+00
       H  9.00314e-01 -1.58965e+00  5.98418e-01
       H  1.51285e+00 -5.12499e-01 -1.35459e+00
       H  2.18751e-02 -1.03467e+00 -1.48316e+00
       H  2.76465e+00  1.71053e+00 -1.01736e-01
       H  1.25321e+00  1.53386e+00 -3.54180e-01
       O -1.45892e+00 -9.82657e-02  1.40300e+00
       O -1.88504e+00 -6.15717e-01 -1.21751e+00
       O -4.97375e-01  2.07205e+00 -2.46370e-01
       O  9.58217e-01 -1.18058e+00  1.49458e+00
       O  9.36072e-01 -1.28618e+00 -1.26361e+00
       O  2.06667e+00  1.05196e+00 -1.99412e-01
18
# CELL(abcABC):   25.29166    25.29166    25.29166    90.00000    90.00000    90.00000  Step:         760  Bead:       0 x_centroid{angstrom}  cell{atomic_unit}
       H -1.93707e+00 -8.78276e-02  2.25809e+00
       H -6.00348e-01 -5.23344e-01  1.49472e+00
       H -2.60172e+00 -1.13469e+00 -1.66137e+00
       H -2.20705e+00 -6.43208e-01 -2.90393e-01
       H -1.00684e+00  1.71540e+00 -9.95411e-01
       H -7.33860e-01  1.53589e+00  5.29408e-01
       H  1.57280e+00 -4.50633e-01  1.32596e+00
       H  8.94127e-01 -1.55370e+00  5.70971e-01
       H  1.44848e+00 -4.88199e-01 -1.31670e+00
       H  7.74615e-02 -1.10286e+00 -1.54210e+00
       H  2.80685e+00  1.67143e+00 -1.82474e-01
       H  1.28432e+00  1.61049e+00 -3.33316e-01
       O -1.46373e+00 -5.80116e-02  1.43236e+00
       O -1.90449e+00 -6.41821e-01 -1.21015e+00
       O -4.94528e-01  2.09129e+00 -2.55702e-01
       O  9.57005e-01 -1.18714e+00  1.49009e+00
       O  9.72487e-01 -1.31391e+00 -1.23862e+00
       O  2.06359e+00  1.04291e+00 -2.17623e-01
18
# CELL(abcABC):   25.29166    25.29166    25.29166    90.00000    90.00000    90.00000  Step:         800  Bead:       0 x_centroid{angstrom}  cell{atomic_unit}
       H -1.91630e+00 -8.39211e-02  2.29369e+00
       H -6.10191e-01 -4.32990e-01  1.64995e+00
       H -2.52118e+00 -1.10989e+00 -1.78186e+00
       H -2.20742e+00 -6.60353e-01 -2.83386e-01
       H -9.11409e-01  1.78473e+00 -1.10271e+00
       H -9.20993e-01  1.50472e+00  3.93542e-01
       H  1.54302e+00 -4.20078e-01  1.41829e+00
       H  9.63704e-01 -1.53141e+00  5.60685e-01
       H  1.39529e+00 -4.79995e-01 -1.12410e+00
       H  7.71958e-02 -1.18255e+00 -1.44580e+00
       H  2.84384e+00  1.60081e+00 -3.24721e-01
       H  1.27969e+00  1.60438e+00 -2.15786e-01
       O -1.47706e+00 -1.42722e-02  1.45450e+00
       O -1.92118e+00 -6.59756e-01 -1.21215e+00
       O -5.01433e-01  2.09578e+00 -2.74037e-01
       O  9.55990e-01 -1.18707e+00  1.47839e+00
       O  1.00131e+00 -1.34371e+00 -1.23032e+00
       O  2.07157e+00  1.03953e+00 -2.27385e-01
18
# CELL(abcABC):   25.29166    25.29166    25.29166    90.00000    90.00000    90.00000  Step:         840  Bead:       0 x_centroid{angstrom}  cell{atomic_unit}
       H -1.92812e+00  2.48302e-02  2.32787e+00
       H -6.22079e-01 -4.52103e-01  1.55703e+00
       H -2.59448e+00 -1.09307e+00 -1.73125e+00
       H -2.22175e+00 -8.11981e-01 -3.12139e-01
       H -8.41867e-01  1.83675e+00 -1.17495e+00
       H -1.07888e+00  1.56959e+00  3.08206e-01
       H  1.57387e+00 -4.37780e-01  1.52418e+00
       H  1.05996e+00 -1.48608e+00  5.44346e-01
       H  1.41147e+00 -5.32466e-01 -1.02808e+00
       H  8.63031e-02 -1.19910e+00 -1.27640e+00
       H  2.79966e+00  1.58399e+00 -4.89980e-01
       H  1.29346e+00  1.62635e+00 -1.68209e-01
       O -1.48135e+00  2.69146e-02  1.48771e+00
       O -1.90556e+00 -6.68648e-01 -1.22802e+00
       O -5.24041e-01  2.08643e+00 -2.96702e-01
       O  9.50593e-01 -1.17504e+00  1.47968e+00
       O  1.02248e+00 -1.37956e+00 -1.22934e+00
       O  2.07196e+00  1.03816e+00 -2.27033e-01
18
# CELL(abcABC):   25.29166    25.29166    25.29166    90.00000    90.00000    90.00000  Step:         880  Bead:       0 x_centroid{angstrom}  cell{atomic_unit}
       H -1.80649e+00  7.63025e-02  2.39371e+00
       H -6.19844e-01 -4.19491e-01  1.59953e+00
       H -2.61511e+00 -1.04574e+00 -1.74898e+00
       H -2.04655e+00 -7.79043e-01 -2.72843e-01
       H -8.27107e-01  1.78638e+00 -1.18282e+00
       H -1.10064e+00  1.57308e+00  2.84362e-01
       H  1.58581e+00 -4.47982e-01  1.58900e+00
       H  1.05558e+00 -1.44906e+00  5.56009e-01
       H  1.44930e+00 -5.58368e-01 -1.17707e+00
       H  9.85201e-02 -1.21563e+00 -1.25229e+00
       H  2.72823e+00  1.58013e+00 -6.24035e-01
       H  1.24569e+00  1.59721e+00 -1.63688e-01
       O -1.48153e+00  6.46526e-02  1.48423e+00
       O -1.89345e+00 -6.88901e-01 -1.23189e+00
       O -5.48434e-01  2.08157e+00 -3.21267e-01
       O  9.49468e-01 -1.16294e+00  1.49871e+00
       O  1.03128e+00 -1.41386e+00 -1.22658e+00
       O  2.06353e+00  1.04340e+00 -2.11875e-01
18
# CELL(abcABC):   25.29166    25.29166    25.29166    90.00000    90.00000    90.00000  Step:         920  Bead:       0 x_centroid{angstrom}  cell{atomic_unit}
       H -1.82935e+00  1.85539e-01  2.38037e+00
       H -5.70825e-01 -3.41717e-01  1.52860e+00
       H -2.66038e+00 -1.03559e+00 -1.62263e+00
       H -2.05585e+00 -6.95554e-01 -3.01069e-01
       H -9.20680e-01  1.69612e+00 -1.14254e+00
       H -9.98801e-01  1.52880e+00  3.36155e-01
       H  1.61665e+00 -4.64484e-01  1.58129e+00
       H  1.02942e+00 -1.42589e+00  5.86732e-01
       H  1.48483e+00 -5.99143e-01 -1.31716e+00
       H  1.30403e-01 -1.26709e+00 -1.46564e+00
       H  2.64888e+00  1.58885e+00 -7.21567e-01
       H  1.16926e+00  1.51783e+00 -2.65306e-01
       O -1.47439e+00  7.64315e-02  1.49579e+00
       O -1.84906e+00 -6.84563e-01 -1.24601e+00
       O -5.79180e-01  2.06976e+00 -3.37245e-01
       O  9.44663e-01 -1.15167e+00  1.52255e+00
       O  1.03541e+00 -1.44096e+00 -1.21705e+00
       O  2.04996e+00  1.05556e+00 -2.00028e-01
18
# CELL(abcABC):   25.29166    25.29166    25.29166    90.00000    90.00000    90.00000  Step:         960  Bead:       0 x_centroid{angstrom}  cell{atomic_unit}
       H -1.78119e+00  2.09224e-01  2.38452e+00
       H -5.81981e-01 -3.56748e-01  1.67393e+00
       H -2.62798e+00 -1.07249e+00 -1.60251e+00
       H -1.94093e+00 -5.02936e-01 -3.15746e-01
       H -1.05427e+00  1.66102e+00 -1.08897e+00
       H -9.06152e-01  1.56901e+00  4.02710e-01
       H  1.62501e+00 -4.63377e-01  1.61969e+00
       H  9.77932e-01 -1.43410e+00  6.22063e-01
       H  1.47038e+00 -6.03893e-01 -1.25157e+00
       H  1.73032e-01 -1.36267e+00 -1.61405e+00
       H  2.63324e+00  1.63009e+00 -6.93411e-01
       H  1.12784e+00  1.46751e+00 -3.10728e-01
       O -1.46408e+00  1.01321e-01  1.48104e+00
       O -1.82598e+00 -6.93587e-01 -1.25123e+00
       O -6.00723e-01  2.06120e+00 -3.55167e-01
       O  9.45130e-01 -1.13373e+00  1.54963e+00
       O  1.04035e+00 -1.47586e+00 -1.21106e+00
       O  2.02821e+00  1.06188e+00 -2.10865e-01
18
# CELL(abcABC):   25.29166    25.29166    25.29166    90.00000    90.00000    90.00000  Step:        1000  Bead:       0 x_centroid{angstrom}  cell{atomic_unit}
       H -1.91155e+00  3.11078e-01  2.28526e+00
       H -6.22606e-01 -4.35576e-01  1.59186e+00
       H -2.63325e+00 -1.12461e+00 -1.46261e+00
       H -1.92398e+00 -4.43178e-01 -3.50046e-01
       H -1.16137e+00  1.63063e+00 -1.04808e+00
       H -8.98953e-01  1.60717e+00  4.11756e-01
       H  1.63715e+00 -4.57071e-01  1.59474e+00
       H  9.76271e-01 -1.42749e+00  6.64385e-01
       H  1.41251e+00 -6.08649e-01 -1.12383e+00
       H  1.71359e-01 -1.38002e+00 -1.59012e+00
       H  2.64577e+00  1.67728e+00 -6.16808e-01
       H  1.13952e+00  1.52888e+00 -3.07621e-01
       O -1.44165e+00  1.32979e-01  1.48686e+00
       O -1.79711e+00 -7.03289e-01 -1.26811e+00
       O -6.20063e-01  2.06081e+00 -3.83897e-01
       O  9.38321e-01 -1.12749e+00  1.59063e+00
       O  1.05753e+00 -1.50738e+00 -1.19641e+00
       O  2.00377e+00  1.05692e+00 -2.40769e-01
18
# CELL(abcABC):   25.29166    25.29166    25.29166    90.00000    90.00000    90.00000  Step:        1040  Bead:       0 x_centroid{angstrom}  cell{atomic_unit}
       H -1.86826e+00  2.50946e-01  2.31368e+00
       H -6.31642e-01 -3.57332e-01  1.76425e+00
       H -2.58940e+00 -1.19308e+00 -1.42376e+00
       H -1.74127e+00 -5.41082e-01 -3.17645e-01
       H -1.17249e+00  1.64783e+00 -1.10599e+00
       H -9.26818e-01  1.63611e+00  4.14329e-01
       H  1.58297e+00 -4.20305e-01  1.60713e+00
       H  9.26515e-01 -1.51350e+00  7.37827e-01
       H  1.43206e+00 -6.17303e-01 -1.11160e+00
       H  1.35666e-01 -1.39848e+00 -1.42075e+00
       H  2.68981e+00  1.64551e+00 -5.43900e-01
       H  1.14116e+00  1.56826e+00 -2.76576e-01
       O -1.42975e+00  1.76351e-01  1.46958e+00
       O -1.78395e+00 -6.98546e-01 -1.26549e+00
       O -6.37221e-01  2.05562e+00 -4.12220e-01
       O  9.20657e-01 -1.12607e+00  1.61881e+00
       O  1.08091e+00 -1.52825e+00 -1.18828e+00
       O  1.98088e+00  1.04421e+00 -2.71159e-01
18
# CELL(abcABC):   25.29166    25.29166    25.29166    90.00000    90.00000    90.00000  Step:        1080  Bead:       0 x_centroid{angstrom}  cell{atomic_unit}
       H -1.95911e+00  2.66670e-01  2.24674e+00
       H -5.05060e-01 -1.92027e-01  1.61988e+00
       H -2.55105e+00 -1.23205e+00 -1.38119e+00
       H -1.67048e+00 -6.83252e-01 -2.84427e-01
       H -1.09466e+00  1.62768e+00 -1.17885e+00
       H -1.04212e+00  1.60589e+00  3.34902e-01
       H  1.52715e+00 -4.06629e-01  1.51590e+00
       H  9.87151e-01 -1.52620e+00  7.86816e-01
       H  1.47121e+00 -6.41755e-01 -1.16914e+00
       H  1.23587e-01 -1.41900e+00 -1.33264e+00
       H  2.69783e+00  1.62926e+00 -4.88345e-01
       H  1.14010e+00  1.59681e+00 -3.79810e-01
       O -1.41456e+00  1.97690e-01  1.47836e+00
       O -1.77542e+00 -6.85491e-01 -1.25181e+00
       O -6.35296e-01  2.06191e+00 -4.29671e-01
       O  8.97571e-01 -1.13424e+00  1.65576e+00
       O  1.08646e+00 -1.54472e+00 -1.18081e+00
       O  1.96355e+00  1.03334e+00 -2.98702e-01
18
# CELL(abcABC):   25.29166    25.29166    25.29166    90.00000    90.00000    90.00000  Step:        1120  Bead:       0 x_centroid{angstrom}  cell{atomic_unit}
       H -1.87712e+00  1.47001e-01  2.30569e+00
       H -5.72524e-01 -2.44873e-01  1.74751e+00
       H -2.52725e+00 -1.21900e+00 -1.44444e+00
       H -1.73378e+00 -6.39502e-01 -2.46305e-01
       H -9.80187e-01  1.64795e+00 -1.26158e+00
       H -1.09503e+00  1.60643e+00  2.92020e-01
       H  1.47652e+00 -3.71544e-01  1.57478e+00
       H  9.74385e-01 -1.62171e+00  8.66515e-01
       H  1.49592e+00 -6.73527e-01 -1.20769e+00
       H  1.54268e-01 -1.36944e+00 -1.40822e+00
       H  2.70164e+00  1.62270e+00 -4.04335e-01
       H  1.11867e+00  1.58499e+00 -4.88267e-01
       O -1.41761e+00  2.20002e-01  1.46857e+00
       O -1.76156e+00 -6.81973e-01 -1.22926e+00
       O -6.29137e-01  2.05021e+00 -4.48273e-01
       O  8.99198e-01 -1.12780e+00  1.67050e+00
       O  1.07860e+00 -1.55958e+00 -1.16589e+00
       O  1.95212e+00  1.03746e+00 -3.24787e-01
18
# CELL(abcABC):   25.29166    25.29166    25.29166    90.00000    90.00000    90.00000  Step:        1160  Bead:       0 x_centroid{angstrom}  cell{atomic_unit}